
     Program PWSCF v.6.8 starts on 23Jun2022 at 13: 6: 4 

     This program is part of the open-source Quantum ESPRESSO suite
     for quantum simulation of materials; please cite
         "P. Giannozzi et al., J. Phys.:Condens. Matter 21 395502 (2009);
         "P. Giannozzi et al., J. Phys.:Condens. Matter 29 465901 (2017);
         "P. Giannozzi et al., J. Chem. Phys. 152 154105 (2020);
          URL http://www.quantum-espresso.org", 
     in publications or presentations arising from this work. More details at
     http://www.quantum-espresso.org/quote

     Parallel version (MPI), running on     3 processors

     MPI processes distributed on     1 nodes
     R & G space division:  proc/nbgrp/npool/nimage =       3
     83166 MiB available memory on the printing compute node when the environment starts
 
     Reading input from ./Si.vc-relax.in

     Current dimensions of program PWSCF are:
     Max number of different atomic species (ntypx) = 10
     Max number of k-points (npk) =  40000
     Max angular momentum in pseudopotentials (lmaxx) =  4
     Message from routine cell_base_init:
     DEPRECATED: use true lattice parameter, not A to a.u. conversion factor

     IMPORTANT: XC functional enforced from input :
     Exchange-correlation= PBE
                           (   1   4   3   4   0   0   0)
     Any further DFT definition will be discarded
     Please, verify this is what you really want

     Found symmetry operation: I + (  0.0000  0.5000 -0.5000)
     This is a supercell, fractional translations are disabled
     Message from routine setup:
     using ibrav=0 with symmetry is DISCOURAGED, use correct ibrav instead

     Subspace diagonalization in iterative solution of the eigenvalue problem:
     a serial algorithm will be used

 
     Parallelization info
     --------------------
     sticks:   dense  smooth     PW     G-vecs:    dense   smooth      PW
     Min        1132    1132    316                49748    49748    7274
     Max        1133    1133    317                49749    49749    7275
     Sum        3397    3397    949               149245   149245   21823
 
     Using Slab Decomposition
 


     bravais-lattice index     =            0
     lattice parameter (alat)  =       1.0000  a.u.
     unit-cell volume          =    1103.7183 (a.u.)^3
     number of atoms/cell      =            8
     number of atomic types    =            1
     number of electrons       =        32.00
     number of Kohn-Sham states=           16
     kinetic-energy cutoff     =     100.0000  Ry
     charge density cutoff     =     400.0000  Ry
     scf convergence threshold =      1.0E-08
     mixing beta               =       0.7000
     number of iterations used =            8  plain     mixing
     energy convergence thresh.=      1.0E-06
     force convergence thresh. =      1.0E-06
     press convergence thresh. =      5.0E-01
     Exchange-correlation= PBE
                           (   1   4   3   4   0   0   0)
     nstep                     =           50


     celldm(1)=   1.000000  celldm(2)=   0.000000  celldm(3)=   0.000000
     celldm(4)=   0.000000  celldm(5)=   0.000000  celldm(6)=   0.000000

     crystal axes: (cart. coord. in units of alat)
               a(1) = (  10.334419   0.000000   0.000000 )  
               a(2) = (   0.000000  10.334419   0.000000 )  
               a(3) = (   0.000000   0.000000  10.334419 )  

     reciprocal axes: (cart. coord. in units 2 pi/alat)
               b(1) = (  0.096764  0.000000  0.000000 )  
               b(2) = (  0.000000  0.096764  0.000000 )  
               b(3) = (  0.000000  0.000000  0.096764 )  


     PseudoPot. # 1 for Si read from file:
     ./Si.pbe.upf
     MD5 check sum: 7f029a58b69e3aa87b46a36c608bf45e
     Pseudo is Norm-conserving, Zval =  4.0
     Generated using ONCVPSP code by D. R. Hamann
     Using radial grid of  602 points,  4 beta functions with: 
                l(1) =   0
                l(2) =   0
                l(3) =   1
                l(4) =   1

     atomic species   valence    mass     pseudopotential
        Si             4.00    28.08550     Si( 1.00)

     24 Sym. Ops. (no inversion) found



   Cartesian axes

     site n.     atom                  positions (alat units)
         1           Si  tau(   1) = (   2.5836048   7.7508145   2.5836048  )
         2           Si  tau(   2) = (   0.0000000   0.0000000   5.1672097  )
         3           Si  tau(   3) = (   2.5836048   2.5836048   7.7508145  )
         4           Si  tau(   4) = (   0.0000000   5.1672097   0.0000000  )
         5           Si  tau(   5) = (   7.7508145   7.7508145   7.7508145  )
         6           Si  tau(   6) = (   5.1672097   0.0000000   0.0000000  )
         7           Si  tau(   7) = (   7.7508145   2.5836048   2.5836048  )
         8           Si  tau(   8) = (   5.1672097   5.1672097   5.1672097  )

     number of k points=    20
                       cart. coord. in units 2pi/alat
        k(    1) = (   0.0000000   0.0000000   0.0000000), wk =   0.0092593
        k(    2) = (   0.0000000   0.0000000   0.0161273), wk =   0.0555556
        k(    3) = (   0.0000000   0.0000000   0.0322547), wk =   0.0555556
        k(    4) = (   0.0000000   0.0000000  -0.0483820), wk =   0.0277778
        k(    5) = (   0.0000000   0.0161273   0.0161273), wk =   0.1111111
        k(    6) = (   0.0000000   0.0161273   0.0322547), wk =   0.2222222
        k(    7) = (   0.0000000   0.0161273  -0.0483820), wk =   0.1111111
        k(    8) = (   0.0000000   0.0322547   0.0322547), wk =   0.1111111
        k(    9) = (   0.0000000   0.0322547  -0.0483820), wk =   0.1111111
        k(   10) = (   0.0000000  -0.0483820  -0.0483820), wk =   0.0277778
        k(   11) = (   0.0161273   0.0161273   0.0161273), wk =   0.0740741
        k(   12) = (   0.0161273   0.0161273   0.0322547), wk =   0.2222222
        k(   13) = (   0.0161273   0.0161273  -0.0483820), wk =   0.1111111
        k(   14) = (   0.0161273   0.0322547   0.0322547), wk =   0.2222222
        k(   15) = (   0.0161273   0.0322547  -0.0483820), wk =   0.2222222
        k(   16) = (   0.0161273  -0.0483820  -0.0483820), wk =   0.0555556
        k(   17) = (   0.0322547   0.0322547   0.0322547), wk =   0.0740741
        k(   18) = (   0.0322547   0.0322547  -0.0483820), wk =   0.1111111
        k(   19) = (   0.0322547  -0.0483820  -0.0483820), wk =   0.0555556
        k(   20) = (  -0.0483820  -0.0483820  -0.0483820), wk =   0.0092593

     Dense  grid:   149245 G-vectors     FFT dimensions: (  72,  72,  72)

     Estimated max dynamical RAM per process >      74.19 MB

     Estimated total dynamical RAM >     222.57 MB

     Initial potential from superposition of free atoms

     starting charge   31.63019, renormalised to   32.00000
     Starting wfcs are random

     total cpu time spent up to now is        1.9 secs

     Self-consistent Calculation

     iteration #  1     ecut=   100.00 Ry     beta= 0.70
     Davidson diagonalization with overlap
     ethr =  1.00E-02,  avg # of iterations = 12.2

     Threshold (ethr) on eigenvalues was too large:
     Diagonalizing with lowered threshold

     Davidson diagonalization with overlap
     ethr =  6.08E-04,  avg # of iterations =  4.0

     total cpu time spent up to now is       19.5 secs

     total energy              =     -63.05414554 Ry
     estimated scf accuracy    <       0.20447906 Ry

     iteration #  2     ecut=   100.00 Ry     beta= 0.70
     Davidson diagonalization with overlap
     ethr =  6.39E-04,  avg # of iterations =  1.0

     total cpu time spent up to now is       22.6 secs

     total energy              =     -63.06378802 Ry
     estimated scf accuracy    <       0.00936547 Ry

     iteration #  3     ecut=   100.00 Ry     beta= 0.70
     Davidson diagonalization with overlap
     ethr =  2.93E-05,  avg # of iterations =  4.0

     total cpu time spent up to now is       27.1 secs

     total energy              =     -63.06638439 Ry
     estimated scf accuracy    <       0.00017357 Ry

     iteration #  4     ecut=   100.00 Ry     beta= 0.70
     Davidson diagonalization with overlap
     ethr =  5.42E-07,  avg # of iterations =  6.0

     total cpu time spent up to now is       33.6 secs

     total energy              =     -63.06660279 Ry
     estimated scf accuracy    <       0.00000326 Ry

     iteration #  5     ecut=   100.00 Ry     beta= 0.70
     Davidson diagonalization with overlap
     ethr =  1.02E-08,  avg # of iterations =  5.7

     total cpu time spent up to now is       39.5 secs

     total energy              =     -63.06660636 Ry
     estimated scf accuracy    <       0.00000064 Ry

     iteration #  6     ecut=   100.00 Ry     beta= 0.70
     Davidson diagonalization with overlap
     ethr =  2.00E-09,  avg # of iterations =  2.5

     total cpu time spent up to now is       43.7 secs

     total energy              =     -63.06660648 Ry
     estimated scf accuracy    <       0.00000005 Ry

     iteration #  7     ecut=   100.00 Ry     beta= 0.70
     Davidson diagonalization with overlap
     ethr =  1.71E-10,  avg # of iterations =  4.3

     total cpu time spent up to now is       49.0 secs

     End of self-consistent calculation

          k = 0.0000 0.0000 0.0000 ( 18805 PWs)   bands (ev):

    -5.8100  -1.7436  -1.7436  -1.7435  -1.7435  -1.7435  -1.7434   3.2188
     3.2188   3.2188   3.2188   3.2188   3.2188   6.0045   6.0045   6.0045

          k = 0.0000 0.0000 0.0161 ( 18673 PWs)   bands (ev):

    -5.6908  -2.9312  -1.7076  -1.7075  -1.7075  -1.7074  -0.4142   2.9217
     2.9218   2.9218   2.9218   3.3262   3.3262   5.2919   5.5877   5.5877

          k = 0.0000 0.0000 0.0323 ( 18633 PWs)   bands (ev):

    -5.3349  -3.9413  -1.6307  -1.6306  -1.6306  -1.6305   1.0110   2.4502
     2.4502   2.4502   2.4503   3.6449   3.6449   3.9456   4.8438   4.8438

          k = 0.0000 0.0000-0.0484 ( 18624 PWs)   bands (ev):

    -4.7482  -4.7481  -1.5894  -1.5893  -1.5893  -1.5892   2.2488   2.2488
     2.2488   2.2488   2.4819   2.4819   4.1618   4.1618   4.1620   4.1620

          k = 0.0000 0.0161 0.0161 ( 18661 PWs)   bands (ev):

    -5.5726  -2.8563  -2.8562  -1.8879  -1.4843  -0.4512  -0.4512   2.2537
     2.9554   2.9554   3.1494   3.1495   3.4076   4.4132   5.1660   5.8883

          k = 0.0000 0.0161 0.0323 ( 18651 PWs)   bands (ev):

    -5.2201  -3.8450  -2.6491  -2.0951  -1.1908  -0.5938   0.8403   1.8596
     2.3267   2.9350   3.2329   3.2811   3.2985   3.6521   4.4132   5.3109

          k = 0.0000 0.0161-0.0484 ( 18618 PWs)   bands (ev):

    -4.6401  -4.6399  -2.3666  -2.3665  -0.8637  -0.8637   1.8986   1.8987
     2.0937   2.0937   3.0033   3.0033   3.7321   3.7321   4.4147   4.4147

          k = 0.0000 0.0323 0.0323 ( 18611 PWs)   bands (ev):

    -4.8787  -3.5657  -3.5656  -2.6154  -0.7107   0.3944   0.3944   1.6989
     2.3055   2.5192   2.5192   3.6513   3.7667   3.7668   3.9430   5.4516

          k = 0.0000 0.0323-0.0484 ( 18648 PWs)   bands (ev):

    -4.3207  -4.3206  -3.1350  -3.1348  -0.1664  -0.1664   1.3435   1.3435
     1.9522   1.9523   2.9793   2.9794   3.9785   3.9786   4.7612   4.7612

          k = 0.0000-0.0484-0.0484 ( 18688 PWs)   bands (ev):

    -3.8073  -3.8072  -3.8072  -3.8070   0.5633   0.5633   0.5633   0.5634
     2.3396   2.3397   2.3397   2.3397   4.7081   4.7081   4.7082   4.7082

          k = 0.0161 0.0161 0.0161 ( 18664 PWs)   bands (ev):

    -5.4556  -2.8018  -2.8018  -2.8017  -0.5152  -0.5152  -0.5151   2.4607
     2.4607   2.4607   3.5107   3.5107   3.5107   3.6402   5.5661   5.5661

          k = 0.0161 0.0161 0.0323 ( 18658 PWs)   bands (ev):

    -5.1072  -3.7565  -2.6781  -2.6780  -0.6769  -0.6769   0.5827   2.1475
     2.1475   2.6024   3.0831   3.4483   3.4484   3.8149   4.9263   5.0904

          k = 0.0161 0.0161-0.0484 ( 18632 PWs)   bands (ev):

    -4.5355  -4.5354  -2.6063  -2.6061  -0.7766  -0.7766   1.6000   1.6001
     2.0842   2.0843   3.3133   3.3133   4.0466   4.0466   4.3018   4.3019

          k = 0.0161 0.0323 0.0323 ( 18620 PWs)   bands (ev):

    -4.7724  -3.5071  -3.5069  -2.8346  -0.7216   0.0349   0.0349   1.6473
     2.1906   2.8453   2.8453   3.9308   3.9309   4.0278   4.3491   5.3365

          k = 0.0161 0.0323-0.0484 ( 18640 PWs)   bands (ev):

    -4.2291  -4.2290  -3.1564  -3.1563  -0.4699  -0.4698   0.7877   0.7878
     2.4889   2.4890   3.6155   3.6156   4.0813   4.0813   4.7249   4.7249

          k = 0.0161-0.0484-0.0484 ( 18664 PWs)   bands (ev):

    -3.7478  -3.7477  -3.7477  -3.7475   0.0648   0.0649   0.0649   0.0650
     3.0160   3.0161   3.0161   3.0162   4.7375   4.7376   4.7377   4.7377

          k = 0.0323 0.0323 0.0323 ( 18655 PWs)   bands (ev):

    -4.4609  -3.3734  -3.3734  -3.3733  -0.5193  -0.5193  -0.5193   0.7351
     3.2757   3.2757   3.2759   4.2706   4.2707   4.2707   5.0272   5.0272

          k = 0.0323 0.0323-0.0484 ( 18614 PWs)   bands (ev):

    -3.9713  -3.9712  -3.2955  -3.2953  -0.7621  -0.7621  -0.0145  -0.0144
     3.4495   3.4496   4.3971   4.3971   4.4527   4.4528   4.6310   4.6312

          k = 0.0323-0.0484-0.0484 ( 18592 PWs)   bands (ev):

    -3.6122  -3.6122  -3.6122  -3.6120  -0.5923  -0.5922  -0.5922  -0.5922
     4.1605   4.1606   4.1606   4.1607   4.7995   4.7995   4.7997   4.7997

          k =-0.0484-0.0484-0.0484 ( 18504 PWs)   bands (ev):

    -3.5332  -3.5332  -3.5332  -3.5329  -0.8632  -0.8632  -0.8632  -0.8632
     4.8322   4.8322   4.8323   4.8323   4.8323   4.8324   4.8324   4.8324

     highest occupied level (ev):     6.0045

!    total energy              =     -63.06660650 Ry
     estimated scf accuracy    <          8.7E-09 Ry

     The total energy is the sum of the following terms:
     one-electron contribution =      18.34920468 Ry
     hartree contribution      =       4.47826615 Ry
     xc contribution           =     -19.17430086 Ry
     ewald contribution        =     -66.71977647 Ry

     convergence has been achieved in   7 iterations

     Forces acting on atoms (cartesian axes, Ry/au):

     atom    1 type  1   force =     0.00000246   -0.00000246    0.00000246
     atom    2 type  1   force =     0.00000000    0.00000000    0.00000000
     atom    3 type  1   force =     0.00000246    0.00000246   -0.00000246
     atom    4 type  1   force =     0.00000000    0.00000000    0.00000000
     atom    5 type  1   force =    -0.00000246   -0.00000246   -0.00000246
     atom    6 type  1   force =     0.00000000    0.00000000    0.00000000
     atom    7 type  1   force =    -0.00000246    0.00000246    0.00000246
     atom    8 type  1   force =     0.00000000    0.00000000    0.00000000

     Total force =     0.000009     Total SCF correction =     0.000110
     SCF correction compared to forces is large: reduce conv_thr to get better values


     Computing stress (Cartesian axis) and pressure

          total   stress  (Ry/bohr**3)                   (kbar)     P=        4.24
   0.00002881   0.00000000   0.00000000            4.24        0.00        0.00
   0.00000000   0.00002881   0.00000000            0.00        4.24        0.00
   0.00000000   0.00000000   0.00002881            0.00        0.00        4.24


     BFGS Geometry Optimization
     Energy error            =      0.0E+00 Ry
     Gradient error          =      2.5E-06 Ry/Bohr
     Cell gradient error     =      4.2E+00 kbar

     number of scf cycles    =   1
     number of bfgs steps    =   0

     enthalpy           new  =     -63.0666065038 Ry

     new trust radius        =       0.0047862957 bohr
     new conv_thr            =       0.0000000100 Ry

     new unit-cell volume =   1106.10519 a.u.^3 (   163.90788 Ang^3 )
     density =      2.27626 g/cm^3

CELL_PARAMETERS (alat=  1.00000000)
  10.341863705   0.000000000   0.000000000
   0.000000000  10.341863705   0.000000000
   0.000000000   0.000000000  10.341863705

ATOMIC_POSITIONS (crystal)
Si            0.2500002382        0.7499997618        0.2500002382
Si            0.0000000000        0.0000000000        0.5000000000
Si            0.2500002382        0.2500002382        0.7499997618
Si            0.0000000000        0.5000000000        0.0000000000
Si            0.7499997618        0.7499997618        0.7499997618
Si            0.5000000000        0.0000000000        0.0000000000
Si            0.7499997618        0.2500002382        0.2500002382
Si            0.5000000000        0.5000000000        0.5000000000



     Writing output data file ./Si.save/
     NEW-OLD atomic charge density approx. for the potential
     extrapolated charge   32.06826, renormalised to   32.00000

     total cpu time spent up to now is       51.9 secs

     Self-consistent Calculation

     iteration #  1     ecut=   100.00 Ry     beta= 0.70
     Davidson diagonalization with overlap
     ethr =  1.00E-06,  avg # of iterations =  1.9

     Threshold (ethr) on eigenvalues was too large:
     Diagonalizing with lowered threshold

     Davidson diagonalization with overlap
     ethr =  2.26E-08,  avg # of iterations =  3.2

     total cpu time spent up to now is       59.7 secs

     total energy              =     -63.06664692 Ry
     estimated scf accuracy    <       0.00000695 Ry

     iteration #  2     ecut=   100.00 Ry     beta= 0.70
     Davidson diagonalization with overlap
     ethr =  2.17E-08,  avg # of iterations =  3.4

     total cpu time spent up to now is       64.9 secs

     total energy              =     -63.06666001 Ry
     estimated scf accuracy    <       0.00000493 Ry

     iteration #  3     ecut=   100.00 Ry     beta= 0.70
     Davidson diagonalization with overlap
     ethr =  1.54E-08,  avg # of iterations =  1.0

     total cpu time spent up to now is       68.0 secs

     total energy              =     -63.06665950 Ry
     estimated scf accuracy    <       0.00000148 Ry

     iteration #  4     ecut=   100.00 Ry     beta= 0.70
     Davidson diagonalization with overlap
     ethr =  4.63E-09,  avg # of iterations =  2.0

     total cpu time spent up to now is       72.1 secs

     total energy              =     -63.06665967 Ry
     estimated scf accuracy    <       0.00000009 Ry

     iteration #  5     ecut=   100.00 Ry     beta= 0.70
     Davidson diagonalization with overlap
     ethr =  2.93E-10,  avg # of iterations =  1.9

     total cpu time spent up to now is       75.4 secs

     End of self-consistent calculation

          k = 0.0000 0.0000 0.0000 ( 18805 PWs)   bands (ev):

    -5.8175  -1.7588  -1.7588  -1.7588  -1.7588  -1.7588  -1.7588   3.2023
     3.2023   3.2023   3.2023   3.2023   3.2023   5.9824   5.9824   5.9824

          k = 0.0000 0.0000 0.0161 ( 18673 PWs)   bands (ev):

    -5.6985  -2.9442  -1.7230  -1.7230  -1.7230  -1.7230  -0.4320   2.9063
     2.9063   2.9063   2.9063   3.3095   3.3095   5.2681   5.5668   5.5668

          k = 0.0000 0.0000 0.0322 ( 18633 PWs)   bands (ev):

    -5.3433  -3.9523  -1.6465  -1.6465  -1.6465  -1.6465   0.9907   2.4364
     2.4364   2.4364   2.4364   3.6277   3.6277   3.9216   4.8244   4.8244

          k = 0.0000 0.0000-0.0483 ( 18624 PWs)   bands (ev):

    -4.7577  -4.7576  -1.6055  -1.6055  -1.6055  -1.6055   2.2356   2.2356
     2.2356   2.2356   2.4593   2.4594   4.1438   4.1438   4.1438   4.1438

          k = 0.0000 0.0161 0.0161 ( 18661 PWs)   bands (ev):

    -5.5805  -2.8694  -2.8694  -1.9035  -1.4999  -0.4690  -0.4690   2.2403
     2.9399   2.9399   3.1336   3.1336   3.3907   4.3909   5.1461   5.8663

          k = 0.0000 0.0161 0.0322 ( 18651 PWs)   bands (ev):

    -5.2287  -3.8563  -2.6630  -2.1105  -1.2070  -0.6115   0.8204   1.8473
     2.3129   2.9201   3.2168   3.2593   3.2822   3.6351   4.3949   5.2898

          k = 0.0000 0.0161-0.0483 ( 18618 PWs)   bands (ev):

    -4.6497  -4.6497  -2.3813  -2.3813  -0.8807  -0.8807   1.8861   1.8862
     2.0725   2.0725   2.9882   2.9882   3.7151   3.7151   4.3957   4.3957

          k = 0.0000 0.0322 0.0322 ( 18611 PWs)   bands (ev):

    -4.8880  -3.5776  -3.5776  -2.6297  -0.7273   0.3757   0.3757   1.6868
     2.2851   2.5049   2.5049   3.6345   3.7496   3.7496   3.9250   5.4303

          k = 0.0000 0.0322-0.0483 ( 18648 PWs)   bands (ev):

    -4.3311  -4.3310  -3.1480  -3.1480  -0.1839  -0.1839   1.3240   1.3240
     1.9393   1.9393   2.9640   2.9640   3.9608   3.9608   4.7414   4.7414

          k = 0.0000-0.0483-0.0483 ( 18688 PWs)   bands (ev):

    -3.8188  -3.8187  -3.8187  -3.8187   0.5450   0.5450   0.5450   0.5450
     2.3257   2.3257   2.3257   2.3258   4.6885   4.6885   4.6885   4.6885

          k = 0.0161 0.0161 0.0161 ( 18664 PWs)   bands (ev):

    -5.4638  -2.8152  -2.8152  -2.8152  -0.5327  -0.5327  -0.5327   2.4466
     2.4467   2.4467   3.4936   3.4936   3.4936   3.6196   5.5449   5.5449

          k = 0.0161 0.0161 0.0322 ( 18658 PWs)   bands (ev):

    -5.1160  -3.7680  -2.6922  -2.6921  -0.6935  -0.6935   0.5640   2.1339
     2.1339   2.5828   3.0671   3.4318   3.4318   3.7973   4.9066   5.0693

          k = 0.0161 0.0161-0.0483 ( 18632 PWs)   bands (ev):

    -4.5454  -4.5454  -2.6207  -2.6206  -0.7926  -0.7926   1.5810   1.5810
     2.0705   2.0705   3.2975   3.2975   4.0276   4.0276   4.2833   4.2834

          k = 0.0161 0.0322 0.0322 ( 18620 PWs)   bands (ev):

    -4.7819  -3.5192  -3.5192  -2.8487  -0.7367   0.0182   0.0182   1.6294
     2.1763   2.8291   2.8291   3.9132   3.9132   4.0096   4.3300   5.3154

          k = 0.0161 0.0322-0.0483 ( 18640 PWs)   bands (ev):

    -4.2397  -4.2397  -3.1696  -3.1696  -0.4851  -0.4851   0.7708   0.7708
     2.4735   2.4735   3.5976   3.5976   4.0633   4.0633   4.7051   4.7051

          k = 0.0161-0.0483-0.0483 ( 18664 PWs)   bands (ev):

    -3.7595  -3.7595  -3.7595  -3.7595   0.0492   0.0492   0.0492   0.0492
     2.9994   2.9994   2.9994   2.9994   4.7178   4.7178   4.7178   4.7178

          k = 0.0322 0.0322 0.0322 ( 18655 PWs)   bands (ev):

    -4.4711  -3.3862  -3.3862  -3.3862  -0.5335  -0.5335  -0.5335   0.7192
     3.2580   3.2581   3.2581   4.2520   4.2520   4.2520   5.0068   5.0068

          k = 0.0322 0.0322-0.0483 ( 18614 PWs)   bands (ev):

    -3.9827  -3.9826  -3.3087  -3.3086  -0.7753  -0.7753  -0.0291  -0.0291
     3.4313   3.4314   4.3782   4.3782   4.4327   4.4327   4.6116   4.6116

          k = 0.0322-0.0483-0.0483 ( 18592 PWs)   bands (ev):

    -3.6246  -3.6246  -3.6246  -3.6246  -0.6055  -0.6054  -0.6054  -0.6054
     4.1413   4.1413   4.1413   4.1413   4.7795   4.7795   4.7795   4.7795

          k =-0.0483-0.0483-0.0483 ( 18504 PWs)   bands (ev):

    -3.5460  -3.5459  -3.5459  -3.5459  -0.8754  -0.8754  -0.8754  -0.8754
     4.8121   4.8121   4.8121   4.8121   4.8121   4.8121   4.8121   4.8121

     highest occupied level (ev):     5.9824

!    total energy              =     -63.06665968 Ry
     estimated scf accuracy    <          3.1E-09 Ry

     The total energy is the sum of the following terms:
     one-electron contribution =      18.28465577 Ry
     hartree contribution      =       4.48577115 Ry
     xc contribution           =     -19.16533678 Ry
     ewald contribution        =     -66.67174982 Ry

     convergence has been achieved in   5 iterations

     Forces acting on atoms (cartesian axes, Ry/au):

     atom    1 type  1   force =    -0.00000089    0.00000089   -0.00000089
     atom    2 type  1   force =     0.00000000    0.00000000    0.00000000
     atom    3 type  1   force =    -0.00000089   -0.00000089    0.00000089
     atom    4 type  1   force =     0.00000000   -0.00000000    0.00000000
     atom    5 type  1   force =     0.00000089    0.00000089    0.00000089
     atom    6 type  1   force =     0.00000000    0.00000000    0.00000000
     atom    7 type  1   force =     0.00000089   -0.00000089   -0.00000089
     atom    8 type  1   force =     0.00000000    0.00000000    0.00000000

     Total force =     0.000003     Total SCF correction =     0.000011
     SCF correction compared to forces is large: reduce conv_thr to get better values


     Computing stress (Cartesian axis) and pressure

          total   stress  (Ry/bohr**3)                   (kbar)     P=        2.30
   0.00001567   0.00000000   0.00000000            2.30        0.00        0.00
   0.00000000   0.00001567   0.00000000            0.00        2.30        0.00
   0.00000000   0.00000000   0.00001567            0.00        0.00        2.30

     Energy error            =      5.3E-05 Ry
     Gradient error          =      8.9E-07 Ry/Bohr
     Cell gradient error     =      2.3E+00 kbar

     number of scf cycles    =   2
     number of bfgs steps    =   1

     enthalpy           old  =     -63.0666065038 Ry
     enthalpy           new  =     -63.0666596781 Ry

     CASE: enthalpy          _new < enthalpy          _old

     new trust radius        =       0.0052668212 bohr
     new conv_thr            =            1.0E-10 Ry

     new unit-cell volume =   1108.73474 a.u.^3 (   164.29754 Ang^3 )
     density =      2.27086 g/cm^3

CELL_PARAMETERS (alat=  1.00000000)
  10.350052484   0.000000000   0.000000000
   0.000000000  10.350052484   0.000000000
   0.000000000   0.000000000  10.350052484

ATOMIC_POSITIONS (crystal)
Si            0.2500000651        0.7499999349        0.2500000651
Si            0.0000000000        0.0000000000        0.5000000000
Si            0.2500000651        0.2500000651        0.7499999349
Si            0.0000000000        0.5000000000        0.0000000000
Si            0.7499999349        0.7499999349        0.7499999349
Si            0.5000000000        0.0000000000        0.0000000000
Si            0.7499999349        0.2500000651        0.2500000651
Si            0.5000000000        0.5000000000        0.5000000000



     Writing output data file ./Si.save/
     NEW-OLD atomic charge density approx. for the potential
     extrapolated charge   32.07502, renormalised to   32.00000

     total cpu time spent up to now is       78.3 secs

     Self-consistent Calculation

     iteration #  1     ecut=   100.00 Ry     beta= 0.70
     Davidson diagonalization with overlap
     ethr =  1.00E-06,  avg # of iterations =  1.9

     Threshold (ethr) on eigenvalues was too large:
     Diagonalizing with lowered threshold

     Davidson diagonalization with overlap
     ethr =  2.65E-08,  avg # of iterations =  3.6

     total cpu time spent up to now is       86.1 secs

     total energy              =     -63.06666713 Ry
     estimated scf accuracy    <       0.00000822 Ry

     iteration #  2     ecut=   100.00 Ry     beta= 0.70
     Davidson diagonalization with overlap
     ethr =  2.57E-08,  avg # of iterations =  3.4

     total cpu time spent up to now is       91.4 secs

     total energy              =     -63.06668280 Ry
     estimated scf accuracy    <       0.00000591 Ry

     iteration #  3     ecut=   100.00 Ry     beta= 0.70
     Davidson diagonalization with overlap
     ethr =  1.85E-08,  avg # of iterations =  1.0

     total cpu time spent up to now is       94.5 secs

     total energy              =     -63.06668217 Ry
     estimated scf accuracy    <       0.00000179 Ry

     iteration #  4     ecut=   100.00 Ry     beta= 0.70
     Davidson diagonalization with overlap
     ethr =  5.59E-09,  avg # of iterations =  2.0

     total cpu time spent up to now is       98.6 secs

     total energy              =     -63.06668240 Ry
     estimated scf accuracy    <       0.00000015 Ry

     iteration #  5     ecut=   100.00 Ry     beta= 0.70
     Davidson diagonalization with overlap
     ethr =  4.58E-10,  avg # of iterations =  1.2

     total cpu time spent up to now is      101.8 secs

     total energy              =     -63.06668238 Ry
     estimated scf accuracy    <       0.00000004 Ry

     iteration #  6     ecut=   100.00 Ry     beta= 0.70
     Davidson diagonalization with overlap
     ethr =  1.22E-10,  avg # of iterations =  2.2

     total cpu time spent up to now is      106.1 secs

     total energy              =     -63.06668239 Ry
     estimated scf accuracy    <          3.9E-09 Ry

     iteration #  7     ecut=   100.00 Ry     beta= 0.70
     Davidson diagonalization with overlap
     ethr =  1.20E-11,  avg # of iterations =  2.4

     total cpu time spent up to now is      109.5 secs

     total energy              =     -63.06668239 Ry
     estimated scf accuracy    <          4.5E-10 Ry

     iteration #  8     ecut=   100.00 Ry     beta= 0.70
     Davidson diagonalization with overlap
     ethr =  1.41E-12,  avg # of iterations =  3.4

     total cpu time spent up to now is      113.5 secs

     End of self-consistent calculation

          k = 0.0000 0.0000 0.0000 ( 18805 PWs)   bands (ev):

    -5.8258  -1.7756  -1.7756  -1.7756  -1.7756  -1.7756  -1.7756   3.1841
     3.1841   3.1841   3.1841   3.1841   3.1841   5.9581   5.9581   5.9581

          k = 0.0000 0.0000 0.0161 ( 18673 PWs)   bands (ev):

    -5.7071  -2.9585  -1.7400  -1.7400  -1.7400  -1.7400  -0.4516   2.8893
     2.8893   2.8893   2.8893   3.2911   3.2911   5.2417   5.5437   5.5437

          k = 0.0000 0.0000 0.0322 ( 18633 PWs)   bands (ev):

    -5.3526  -3.9645  -1.6641  -1.6641  -1.6641  -1.6641   0.9683   2.4212
     2.4212   2.4212   2.4212   3.6087   3.6087   3.8951   4.8030   4.8030

          k = 0.0000 0.0000-0.0483 ( 18624 PWs)   bands (ev):

    -4.7682  -4.7682  -1.6233  -1.6233  -1.6233  -1.6233   2.2211   2.2211
     2.2211   2.2211   2.4345   2.4345   4.1238   4.1238   4.1238   4.1238

          k = 0.0000 0.0161 0.0161 ( 18661 PWs)   bands (ev):

    -5.5893  -2.8840  -2.8840  -1.9207  -1.5171  -0.4887  -0.4887   2.2255
     2.9227   2.9227   3.1161   3.1161   3.3721   4.3662   5.1241   5.8420

          k = 0.0000 0.0161 0.0322 ( 18651 PWs)   bands (ev):

    -5.2382  -3.8687  -2.6783  -2.1275  -1.2248  -0.6310   0.7985   1.8338
     2.2977   2.9037   3.1990   3.2353   3.2643   3.6164   4.3747   5.2664

          k = 0.0000 0.0161-0.0483 ( 18618 PWs)   bands (ev):

    -4.6605  -4.6605  -2.3976  -2.3976  -0.8995  -0.8995   1.8723   1.8723
     2.0492   2.0492   2.9715   2.9715   3.6963   3.6963   4.3747   4.3747

          k = 0.0000 0.0322 0.0322 ( 18611 PWs)   bands (ev):

    -4.8983  -3.5909  -3.5908  -2.6456  -0.7457   0.3549   0.3549   1.6735
     2.2626   2.4890   2.4890   3.6161   3.7308   3.7308   3.9051   5.4068

          k = 0.0000 0.0322-0.0483 ( 18648 PWs)   bands (ev):

    -4.3426  -4.3426  -3.1624  -3.1624  -0.2033  -0.2033   1.3025   1.3025
     1.9251   1.9251   2.9470   2.9470   3.9412   3.9412   4.7196   4.7196

          k = 0.0000-0.0483-0.0483 ( 18688 PWs)   bands (ev):

    -3.8315  -3.8315  -3.8315  -3.8315   0.5248   0.5248   0.5248   0.5248
     2.3104   2.3104   2.3104   2.3104   4.6668   4.6668   4.6668   4.6668

          k = 0.0161 0.0161 0.0161 ( 18664 PWs)   bands (ev):

    -5.4728  -2.8301  -2.8301  -2.8301  -0.5521  -0.5521  -0.5521   2.4312
     2.4312   2.4312   3.4748   3.4748   3.4748   3.5968   5.5216   5.5216

          k = 0.0161 0.0161 0.0322 ( 18658 PWs)   bands (ev):

    -5.1258  -3.7807  -2.7077  -2.7077  -0.7119  -0.7119   0.5433   2.1190
     2.1190   2.5613   3.0493   3.4136   3.4136   3.7778   4.8848   5.0461

          k = 0.0161 0.0161-0.0483 ( 18632 PWs)   bands (ev):

    -4.5564  -4.5564  -2.6366  -2.6366  -0.8103  -0.8103   1.5599   1.5599
     2.0553   2.0553   3.2800   3.2800   4.0067   4.0067   4.2629   4.2629

          k = 0.0161 0.0322 0.0322 ( 18620 PWs)   bands (ev):

    -4.7925  -3.5327  -3.5327  -2.8642  -0.7535  -0.0002  -0.0002   1.6096
     2.1605   2.8113   2.8113   3.8938   3.8938   3.9896   4.3090   5.2922

          k = 0.0161 0.0322-0.0483 ( 18640 PWs)   bands (ev):

    -4.2515  -4.2515  -3.1842  -3.1842  -0.5020  -0.5020   0.7520   0.7520
     2.4565   2.4565   3.5779   3.5779   4.0434   4.0434   4.6833   4.6833

          k = 0.0161-0.0483-0.0483 ( 18664 PWs)   bands (ev):

    -3.7726  -3.7726  -3.7726  -3.7726   0.0319   0.0319   0.0319   0.0319
     2.9810   2.9810   2.9810   2.9810   4.6960   4.6960   4.6960   4.6960

          k = 0.0322 0.0322 0.0322 ( 18655 PWs)   bands (ev):

    -4.4824  -3.4004  -3.4004  -3.4004  -0.5492  -0.5492  -0.5492   0.7016
     3.2385   3.2385   3.2385   4.2313   4.2313   4.2313   4.9843   4.9843

          k = 0.0322 0.0322-0.0483 ( 18614 PWs)   bands (ev):

    -3.9952  -3.9952  -3.3233  -3.3233  -0.7899  -0.7899  -0.0453  -0.0453
     3.4113   3.4113   4.3574   4.3574   4.4105   4.4105   4.5901   4.5901

          k = 0.0322-0.0483-0.0483 ( 18592 PWs)   bands (ev):

    -3.6383  -3.6383  -3.6383  -3.6383  -0.6201  -0.6201  -0.6201  -0.6201
     4.1200   4.1200   4.1200   4.1200   4.7574   4.7574   4.7574   4.7574

          k =-0.0483-0.0483-0.0483 ( 18504 PWs)   bands (ev):

    -3.5601  -3.5601  -3.5601  -3.5601  -0.8890  -0.8890  -0.8890  -0.8890
     4.7899   4.7899   4.7899   4.7899   4.7899   4.7899   4.7899   4.7899

     highest occupied level (ev):     5.9581

!    total energy              =     -63.06668239 Ry
     estimated scf accuracy    <          2.2E-11 Ry

     The total energy is the sum of the following terms:
     one-electron contribution =      18.21370183 Ry
     hartree contribution      =       4.49417023 Ry
     xc contribution           =     -19.15555414 Ry
     ewald contribution        =     -66.61900031 Ry

     convergence has been achieved in   8 iterations

     Forces acting on atoms (cartesian axes, Ry/au):

     atom    1 type  1   force =    -0.00000020    0.00000020   -0.00000020
     atom    2 type  1   force =     0.00000000    0.00000000    0.00000000
     atom    3 type  1   force =    -0.00000020   -0.00000020    0.00000020
     atom    4 type  1   force =     0.00000000    0.00000000    0.00000000
     atom    5 type  1   force =     0.00000020    0.00000020    0.00000020
     atom    6 type  1   force =     0.00000000    0.00000000    0.00000000
     atom    7 type  1   force =     0.00000020   -0.00000020   -0.00000020
     atom    8 type  1   force =     0.00000000    0.00000000    0.00000000

     Total force =     0.000001     Total SCF correction =     0.000000
     SCF correction compared to forces is large: reduce conv_thr to get better values


     Computing stress (Cartesian axis) and pressure

          total   stress  (Ry/bohr**3)                   (kbar)     P=        0.23
   0.00000155   0.00000000   0.00000000            0.23        0.00        0.00
   0.00000000   0.00000155   0.00000000            0.00        0.23        0.00
   0.00000000   0.00000000   0.00000155            0.00        0.00        0.23

     Energy error            =      2.3E-05 Ry
     Gradient error          =      2.0E-07 Ry/Bohr
     Cell gradient error     =      2.3E-01 kbar

     number of scf cycles    =   3
     number of bfgs steps    =   2

     enthalpy           old  =     -63.0666596781 Ry
     enthalpy           new  =     -63.0666823890 Ry

     CASE: enthalpy          _new < enthalpy          _old

     new trust radius        =       0.0005784009 bohr
     new conv_thr            =            1.0E-10 Ry

     new unit-cell volume =   1109.02366 a.u.^3 (   164.34035 Ang^3 )
     density =      2.27027 g/cm^3

CELL_PARAMETERS (alat=  1.00000000)
  10.350951418   0.000000000   0.000000000
   0.000000000  10.350951418   0.000000000
   0.000000000   0.000000000  10.350951418

ATOMIC_POSITIONS (crystal)
Si            0.2500000341        0.7499999659        0.2500000341
Si            0.0000000000        0.0000000000        0.5000000000
Si            0.2500000341        0.2500000341        0.7499999659
Si            0.0000000000        0.5000000000        0.0000000000
Si            0.7499999659        0.7499999659        0.7499999659
Si            0.5000000000        0.0000000000        0.0000000000
Si            0.7499999659        0.2500000341        0.2500000341
Si            0.5000000000        0.5000000000        0.5000000000



     Writing output data file ./Si.save/
     NEW-OLD atomic charge density approx. for the potential
     extrapolated charge   32.00824, renormalised to   32.00000

     total cpu time spent up to now is      116.4 secs

     Self-consistent Calculation

     iteration #  1     ecut=   100.00 Ry     beta= 0.70
     Davidson diagonalization with overlap
     ethr =  1.00E-06,  avg # of iterations =  1.0

     Threshold (ethr) on eigenvalues was too large:
     Diagonalizing with lowered threshold

     Davidson diagonalization with overlap
     ethr =  3.27E-10,  avg # of iterations =  3.5

     total cpu time spent up to now is      124.0 secs

     total energy              =     -63.06668242 Ry
     estimated scf accuracy    <       0.00000010 Ry

     iteration #  2     ecut=   100.00 Ry     beta= 0.70
     Davidson diagonalization with overlap
     ethr =  3.22E-10,  avg # of iterations =  3.5

     total cpu time spent up to now is      129.2 secs

     total energy              =     -63.06668262 Ry
     estimated scf accuracy    <       0.00000007 Ry

     iteration #  3     ecut=   100.00 Ry     beta= 0.70
     Davidson diagonalization with overlap
     ethr =  2.23E-10,  avg # of iterations =  1.0

     total cpu time spent up to now is      132.3 secs

     total energy              =     -63.06668261 Ry
     estimated scf accuracy    <       0.00000002 Ry

     iteration #  4     ecut=   100.00 Ry     beta= 0.70
     Davidson diagonalization with overlap
     ethr =  6.65E-11,  avg # of iterations =  2.0

     total cpu time spent up to now is      136.5 secs

     total energy              =     -63.06668261 Ry
     estimated scf accuracy    <          1.7E-09 Ry

     iteration #  5     ecut=   100.00 Ry     beta= 0.70
     Davidson diagonalization with overlap
     ethr =  5.42E-12,  avg # of iterations =  1.1

     total cpu time spent up to now is      139.6 secs

     total energy              =     -63.06668261 Ry
     estimated scf accuracy    <          4.1E-10 Ry

     iteration #  6     ecut=   100.00 Ry     beta= 0.70
     Davidson diagonalization with overlap
     ethr =  1.28E-12,  avg # of iterations =  2.4

     total cpu time spent up to now is      143.9 secs

     End of self-consistent calculation

          k = 0.0000 0.0000 0.0000 ( 18805 PWs)   bands (ev):

    -5.8268  -1.7775  -1.7775  -1.7775  -1.7775  -1.7775  -1.7775   3.1821
     3.1821   3.1821   3.1821   3.1821   3.1821   5.9554   5.9554   5.9554

          k = 0.0000 0.0000 0.0161 ( 18673 PWs)   bands (ev):

    -5.7080  -2.9601  -1.7419  -1.7419  -1.7419  -1.7419  -0.4537   2.8875
     2.8875   2.8875   2.8875   3.2891   3.2891   5.2389   5.5411   5.5411

          k = 0.0000 0.0000 0.0322 ( 18633 PWs)   bands (ev):

    -5.3536  -3.9658  -1.6660  -1.6660  -1.6660  -1.6660   0.9659   2.4195
     2.4195   2.4195   2.4195   3.6066   3.6066   3.8922   4.8006   4.8006

          k = 0.0000 0.0000-0.0483 ( 18624 PWs)   bands (ev):

    -4.7693  -4.7693  -1.6253  -1.6253  -1.6253  -1.6253   2.2195   2.2195
     2.2195   2.2195   2.4318   2.4318   4.1216   4.1216   4.1216   4.1216

          k = 0.0000 0.0161 0.0161 ( 18661 PWs)   bands (ev):

    -5.5903  -2.8856  -2.8856  -1.9225  -1.5190  -0.4908  -0.4908   2.2239
     2.9209   2.9209   3.1142   3.1142   3.3701   4.3635   5.1217   5.8393

          k = 0.0000 0.0161 0.0322 ( 18651 PWs)   bands (ev):

    -5.2393  -3.8701  -2.6800  -2.1294  -1.2268  -0.6331   0.7961   1.8323
     2.2961   2.9019   3.1971   3.2326   3.2624   3.6143   4.3725   5.2639

          k = 0.0000 0.0161-0.0483 ( 18618 PWs)   bands (ev):

    -4.6617  -4.6617  -2.3994  -2.3994  -0.9015  -0.9015   1.8708   1.8708
     2.0466   2.0466   2.9697   2.9697   3.6942   3.6942   4.3724   4.3724

          k = 0.0000 0.0322 0.0322 ( 18611 PWs)   bands (ev):

    -4.8994  -3.5923  -3.5923  -2.6473  -0.7477   0.3527   0.3527   1.6721
     2.2601   2.4873   2.4873   3.6141   3.7287   3.7287   3.9029   5.4042

          k = 0.0000 0.0322-0.0483 ( 18648 PWs)   bands (ev):

    -4.3438  -4.3438  -3.1640  -3.1640  -0.2054  -0.2054   1.3002   1.3002
     1.9235   1.9235   2.9452   2.9452   3.9390   3.9390   4.7172   4.7172

          k = 0.0000-0.0483-0.0483 ( 18688 PWs)   bands (ev):

    -3.8329  -3.8329  -3.8329  -3.8329   0.5226   0.5226   0.5226   0.5226
     2.3087   2.3087   2.3087   2.3087   4.6644   4.6644   4.6644   4.6644

          k = 0.0161 0.0161 0.0161 ( 18664 PWs)   bands (ev):

    -5.4738  -2.8317  -2.8317  -2.8317  -0.5542  -0.5542  -0.5542   2.4295
     2.4295   2.4295   3.4727   3.4727   3.4727   3.5943   5.5190   5.5190

          k = 0.0161 0.0161 0.0322 ( 18658 PWs)   bands (ev):

    -5.1269  -3.7821  -2.7094  -2.7094  -0.7139  -0.7139   0.5411   2.1173
     2.1173   2.5589   3.0474   3.4116   3.4116   3.7757   4.8824   5.0435

          k = 0.0161 0.0161-0.0483 ( 18632 PWs)   bands (ev):

    -4.5576  -4.5576  -2.6384  -2.6384  -0.8122  -0.8122   1.5576   1.5576
     2.0536   2.0536   3.2781   3.2781   4.0044   4.0044   4.2607   4.2607

          k = 0.0161 0.0322 0.0322 ( 18620 PWs)   bands (ev):

    -4.7936  -3.5342  -3.5342  -2.8659  -0.7554  -0.0022  -0.0022   1.6074
     2.1588   2.8093   2.8093   3.8917   3.8917   3.9874   4.3066   5.2896

          k = 0.0161 0.0322-0.0483 ( 18640 PWs)   bands (ev):

    -4.2528  -4.2528  -3.1858  -3.1858  -0.5038  -0.5038   0.7500   0.7500
     2.4547   2.4547   3.5757   3.5757   4.0412   4.0412   4.6809   4.6809

          k = 0.0161-0.0483-0.0483 ( 18664 PWs)   bands (ev):

    -3.7740  -3.7740  -3.7740  -3.7740   0.0300   0.0300   0.0300   0.0300
     2.9790   2.9790   2.9790   2.9790   4.6936   4.6936   4.6936   4.6936

          k = 0.0322 0.0322 0.0322 ( 18655 PWs)   bands (ev):

    -4.4837  -3.4019  -3.4019  -3.4019  -0.5509  -0.5509  -0.5509   0.6997
     3.2364   3.2364   3.2364   4.2291   4.2291   4.2291   4.9818   4.9818

          k = 0.0322 0.0322-0.0483 ( 18614 PWs)   bands (ev):

    -3.9966  -3.9966  -3.3249  -3.3249  -0.7915  -0.7915  -0.0470  -0.0470
     3.4091   3.4091   4.3551   4.3551   4.4081   4.4081   4.5877   4.5877

          k = 0.0322-0.0483-0.0483 ( 18592 PWs)   bands (ev):

    -3.6398  -3.6398  -3.6398  -3.6398  -0.6217  -0.6217  -0.6217  -0.6217
     4.1176   4.1176   4.1176   4.1176   4.7550   4.7550   4.7550   4.7550

          k =-0.0483-0.0483-0.0483 ( 18504 PWs)   bands (ev):

    -3.5617  -3.5617  -3.5617  -3.5617  -0.8905  -0.8905  -0.8905  -0.8905
     4.7874   4.7874   4.7874   4.7874   4.7874   4.7874   4.7874   4.7874

     highest occupied level (ev):     5.9554

!    total energy              =     -63.06668261 Ry
     estimated scf accuracy    <          4.9E-11 Ry

     The total energy is the sum of the following terms:
     one-electron contribution =      18.20592643 Ry
     hartree contribution      =       4.49508365 Ry
     xc contribution           =     -19.15447794 Ry
     ewald contribution        =     -66.61321475 Ry

     convergence has been achieved in   6 iterations

     Forces acting on atoms (cartesian axes, Ry/au):

     atom    1 type  1   force =    -0.00000012    0.00000012   -0.00000012
     atom    2 type  1   force =     0.00000000    0.00000000    0.00000000
     atom    3 type  1   force =    -0.00000012   -0.00000012    0.00000012
     atom    4 type  1   force =     0.00000000    0.00000000    0.00000000
     atom    5 type  1   force =     0.00000012    0.00000012    0.00000012
     atom    6 type  1   force =     0.00000000    0.00000000    0.00000000
     atom    7 type  1   force =     0.00000012   -0.00000012   -0.00000012
     atom    8 type  1   force =     0.00000000    0.00000000    0.00000000

     Total force =     0.000000     Total SCF correction =     0.000000


     Computing stress (Cartesian axis) and pressure

          total   stress  (Ry/bohr**3)                   (kbar)     P=       -0.00
  -0.00000000   0.00000000   0.00000000           -0.00        0.00        0.00
   0.00000000  -0.00000000   0.00000000            0.00       -0.00        0.00
   0.00000000   0.00000000  -0.00000000            0.00        0.00       -0.00

     Energy error            =      2.2E-07 Ry
     Gradient error          =      1.2E-07 Ry/Bohr
     Cell gradient error     =      5.0E-04 kbar

     bfgs converged in   4 scf cycles and   3 bfgs steps
     (criteria: energy <  1.0E-06 Ry, force <  1.0E-06Ry/Bohr, cell <  5.0E-01kbar)

     End of BFGS Geometry Optimization

     Final enthalpy           =     -63.0666826105 Ry

     File ./Si.bfgs deleted, as requested
Begin final coordinates
     new unit-cell volume =   1109.02366 a.u.^3 (   164.34035 Ang^3 )
     density =      2.27027 g/cm^3

CELL_PARAMETERS (alat=  1.00000000)
  10.350951418   0.000000000   0.000000000
   0.000000000  10.350951418   0.000000000
   0.000000000   0.000000000  10.350951418

ATOMIC_POSITIONS (crystal)
Si            0.2500000341        0.7499999659        0.2500000341
Si            0.0000000000        0.0000000000        0.5000000000
Si            0.2500000341        0.2500000341        0.7499999659
Si            0.0000000000        0.5000000000        0.0000000000
Si            0.7499999659        0.7499999659        0.7499999659
Si            0.5000000000        0.0000000000        0.0000000000
Si            0.7499999659        0.2500000341        0.2500000341
Si            0.5000000000        0.5000000000        0.5000000000
End final coordinates



     Writing output data file ./Si.save/

     Final scf calculation at the relaxed structure.
     The G-vectors are recalculated for the final unit cell
     Results may differ from those at the preceding step.
 
     Parallelization info
     --------------------
     sticks:   dense  smooth     PW     G-vecs:    dense   smooth      PW
     Min        1132    1132    316                49926    49926    7292
     Max        1133    1133    317                49928    49928    7295
     Sum        3397    3397    949               149781   149781   21879
 
     Using Slab Decomposition
 


     bravais-lattice index     =            0
     lattice parameter (alat)  =       1.0000  a.u.
     unit-cell volume          =    1109.0237 (a.u.)^3
     number of atoms/cell      =            8
     number of atomic types    =            1
     number of electrons       =        32.00
     number of Kohn-Sham states=           16
     kinetic-energy cutoff     =     100.0000  Ry
     charge density cutoff     =     400.0000  Ry
     scf convergence threshold =      1.0E-10
     mixing beta               =       0.7000
     number of iterations used =            8  plain     mixing
     press convergence thresh. =      5.0E-01
     Exchange-correlation= PBE
                           (   1   4   3   4   0   0   0)

     celldm(1)=   1.000000  celldm(2)=   0.000000  celldm(3)=   0.000000
     celldm(4)=   0.000000  celldm(5)=   0.000000  celldm(6)=   0.000000

     crystal axes: (cart. coord. in units of alat)
               a(1) = (  10.350951   0.000000   0.000000 )  
               a(2) = (   0.000000  10.350951   0.000000 )  
               a(3) = (   0.000000   0.000000  10.350951 )  

     reciprocal axes: (cart. coord. in units 2 pi/alat)
               b(1) = (  0.096609  0.000000  0.000000 )  
               b(2) = (  0.000000  0.096609  0.000000 )  
               b(3) = (  0.000000  0.000000  0.096609 )  


     PseudoPot. # 1 for Si read from file:
     ./Si.pbe.upf
     MD5 check sum: 7f029a58b69e3aa87b46a36c608bf45e
     Pseudo is Norm-conserving, Zval =  4.0
     Generated using ONCVPSP code by D. R. Hamann
     Using radial grid of  602 points,  4 beta functions with: 
                l(1) =   0
                l(2) =   0
                l(3) =   1
                l(4) =   1

     atomic species   valence    mass     pseudopotential
        Si             4.00    28.08550     Si( 1.00)

     24 Sym. Ops. (no inversion) found



   Cartesian axes

     site n.     atom                  positions (alat units)
         1           Si  tau(   1) = (   2.5877382   7.7632132   2.5877382  )
         2           Si  tau(   2) = (   0.0000000   0.0000000   5.1754757  )
         3           Si  tau(   3) = (   2.5877382   2.5877382   7.7632132  )
         4           Si  tau(   4) = (   0.0000000   5.1754757   0.0000000  )
         5           Si  tau(   5) = (   7.7632132   7.7632132   7.7632132  )
         6           Si  tau(   6) = (   5.1754757   0.0000000   0.0000000  )
         7           Si  tau(   7) = (   7.7632132   2.5877382   2.5877382  )
         8           Si  tau(   8) = (   5.1754757   5.1754757   5.1754757  )

     number of k points=    20
                       cart. coord. in units 2pi/alat
        k(    1) = (   0.0000000   0.0000000   0.0000000), wk =   0.0092593
        k(    2) = (   0.0000000   0.0000000   0.0161016), wk =   0.0555556
        k(    3) = (   0.0000000   0.0000000   0.0322032), wk =   0.0555556
        k(    4) = (   0.0000000   0.0000000  -0.0483047), wk =   0.0277778
        k(    5) = (   0.0000000   0.0161016   0.0161016), wk =   0.1111111
        k(    6) = (   0.0000000   0.0161016   0.0322032), wk =   0.2222222
        k(    7) = (   0.0000000   0.0161016  -0.0483047), wk =   0.1111111
        k(    8) = (   0.0000000   0.0322032   0.0322032), wk =   0.1111111
        k(    9) = (   0.0000000   0.0322032  -0.0483047), wk =   0.1111111
        k(   10) = (   0.0000000  -0.0483047  -0.0483047), wk =   0.0277778
        k(   11) = (   0.0161016   0.0161016   0.0161016), wk =   0.0740741
        k(   12) = (   0.0161016   0.0161016   0.0322032), wk =   0.2222222
        k(   13) = (   0.0161016   0.0161016  -0.0483047), wk =   0.1111111
        k(   14) = (   0.0161016   0.0322032   0.0322032), wk =   0.2222222
        k(   15) = (   0.0161016   0.0322032  -0.0483047), wk =   0.2222222
        k(   16) = (   0.0161016  -0.0483047  -0.0483047), wk =   0.0555556
        k(   17) = (   0.0322032   0.0322032   0.0322032), wk =   0.0740741
        k(   18) = (   0.0322032   0.0322032  -0.0483047), wk =   0.1111111
        k(   19) = (   0.0322032  -0.0483047  -0.0483047), wk =   0.0555556
        k(   20) = (  -0.0483047  -0.0483047  -0.0483047), wk =   0.0092593

     Dense  grid:   149781 G-vectors     FFT dimensions: (  72,  72,  72)

     Estimated max dynamical RAM per process >      74.86 MB

     Estimated total dynamical RAM >     224.57 MB

     Initial potential from superposition of free atoms

     starting charge   31.63019, renormalised to   32.00000
     Starting wfcs are random

     total cpu time spent up to now is      147.9 secs

     Self-consistent Calculation

     iteration #  1     ecut=   100.00 Ry     beta= 0.70
     Davidson diagonalization with overlap
     ethr =  1.00E-06,  avg # of iterations = 27.3

     total cpu time spent up to now is      176.8 secs

     total energy              =     -63.05768049 Ry
     estimated scf accuracy    <       0.20368043 Ry

     iteration #  2     ecut=   100.00 Ry     beta= 0.70
     Davidson diagonalization with overlap
     ethr =  6.37E-04,  avg # of iterations =  1.0

     total cpu time spent up to now is      179.9 secs

     total energy              =     -63.06546745 Ry
     estimated scf accuracy    <       0.00919778 Ry

     iteration #  3     ecut=   100.00 Ry     beta= 0.70
     Davidson diagonalization with overlap
     ethr =  2.87E-05,  avg # of iterations =  1.9

     total cpu time spent up to now is      183.6 secs

     total energy              =     -63.06654190 Ry
     estimated scf accuracy    <       0.00011567 Ry

     iteration #  4     ecut=   100.00 Ry     beta= 0.70
     Davidson diagonalization with overlap
     ethr =  3.61E-07,  avg # of iterations =  5.2

     total cpu time spent up to now is      189.7 secs

     total energy              =     -63.06667887 Ry
     estimated scf accuracy    <       0.00000990 Ry

     iteration #  5     ecut=   100.00 Ry     beta= 0.70
     Davidson diagonalization with overlap
     ethr =  3.09E-08,  avg # of iterations =  3.0

     total cpu time spent up to now is      194.3 secs

     total energy              =     -63.06668216 Ry
     estimated scf accuracy    <       0.00000122 Ry

     iteration #  6     ecut=   100.00 Ry     beta= 0.70
     Davidson diagonalization with overlap
     ethr =  3.82E-09,  avg # of iterations =  3.8

     total cpu time spent up to now is      199.1 secs

     total energy              =     -63.06668260 Ry
     estimated scf accuracy    <       0.00000006 Ry

     iteration #  7     ecut=   100.00 Ry     beta= 0.70
     Davidson diagonalization with overlap
     ethr =  1.87E-10,  avg # of iterations =  4.3

     total cpu time spent up to now is      204.2 secs

     total energy              =     -63.06668263 Ry
     estimated scf accuracy    <          1.0E-10 Ry

     iteration #  8     ecut=   100.00 Ry     beta= 0.70
     Davidson diagonalization with overlap
     ethr =  3.20E-13,  avg # of iterations =  8.4

     total cpu time spent up to now is      213.3 secs

     End of self-consistent calculation

          k = 0.0000 0.0000 0.0000 ( 18805 PWs)   bands (ev):

    -5.8267  -1.7775  -1.7775  -1.7775  -1.7775  -1.7775  -1.7775   3.1821
     3.1821   3.1821   3.1821   3.1821   3.1821   5.9555   5.9555   5.9555

          k = 0.0000 0.0000 0.0161 ( 18761 PWs)   bands (ev):

    -5.7080  -2.9601  -1.7419  -1.7419  -1.7419  -1.7419  -0.4537   2.8875
     2.8875   2.8875   2.8875   3.2891   3.2891   5.2389   5.5412   5.5412

          k = 0.0000 0.0000 0.0322 ( 18693 PWs)   bands (ev):

    -5.3536  -3.9658  -1.6660  -1.6660  -1.6660  -1.6660   0.9659   2.4195
     2.4195   2.4195   2.4195   3.6066   3.6066   3.8922   4.8007   4.8007

          k = 0.0000 0.0000-0.0483 ( 18752 PWs)   bands (ev):

    -4.7693  -4.7693  -1.6253  -1.6253  -1.6253  -1.6253   2.2196   2.2196
     2.2196   2.2196   2.4318   2.4318   4.1216   4.1216   4.1216   4.1216

          k = 0.0000 0.0161 0.0161 ( 18765 PWs)   bands (ev):

    -5.5903  -2.8856  -2.8856  -1.9225  -1.5190  -0.4908  -0.4908   2.2239
     2.9209   2.9209   3.1142   3.1142   3.3701   4.3635   5.1217   5.8393

          k = 0.0000 0.0161 0.0322 ( 18738 PWs)   bands (ev):

    -5.2393  -3.8701  -2.6800  -2.1294  -1.2268  -0.6331   0.7961   1.8323
     2.2961   2.9019   3.1971   3.2327   3.2624   3.6143   4.3725   5.2639

          k = 0.0000 0.0161-0.0483 ( 18728 PWs)   bands (ev):

    -4.6617  -4.6617  -2.3994  -2.3994  -0.9015  -0.9015   1.8708   1.8708
     2.0466   2.0466   2.9697   2.9697   3.6942   3.6942   4.3724   4.3724

          k = 0.0000 0.0322 0.0322 ( 18759 PWs)   bands (ev):

    -4.8994  -3.5923  -3.5923  -2.6473  -0.7477   0.3527   0.3527   1.6721
     2.2601   2.4873   2.4873   3.6141   3.7287   3.7287   3.9030   5.4042

          k = 0.0000 0.0322-0.0483 ( 18760 PWs)   bands (ev):

    -4.3438  -4.3438  -3.1640  -3.1640  -0.2054  -0.2054   1.3002   1.3002
     1.9235   1.9235   2.9452   2.9452   3.9390   3.9390   4.7172   4.7172

          k = 0.0000-0.0483-0.0483 ( 18688 PWs)   bands (ev):

    -3.8329  -3.8329  -3.8329  -3.8329   0.5227   0.5227   0.5227   0.5227
     2.3087   2.3087   2.3087   2.3087   4.6644   4.6644   4.6644   4.6644

          k = 0.0161 0.0161 0.0161 ( 18721 PWs)   bands (ev):

    -5.4738  -2.8317  -2.8317  -2.8317  -0.5542  -0.5542  -0.5542   2.4295
     2.4295   2.4295   3.4728   3.4728   3.4728   3.5944   5.5190   5.5190

          k = 0.0161 0.0161 0.0322 ( 18730 PWs)   bands (ev):

    -5.1269  -3.7821  -2.7094  -2.7094  -0.7139  -0.7139   0.5411   2.1173
     2.1173   2.5589   3.0474   3.4117   3.4117   3.7757   4.8824   5.0435

          k = 0.0161 0.0161-0.0483 ( 18672 PWs)   bands (ev):

    -4.5576  -4.5576  -2.6383  -2.6383  -0.8122  -0.8122   1.5576   1.5576
     2.0536   2.0536   3.2781   3.2781   4.0044   4.0044   4.2607   4.2607

          k = 0.0161 0.0322 0.0322 ( 18714 PWs)   bands (ev):

    -4.7936  -3.5342  -3.5342  -2.8659  -0.7553  -0.0022  -0.0022   1.6075
     2.1588   2.8094   2.8094   3.8917   3.8917   3.9874   4.3067   5.2896

          k = 0.0161 0.0322-0.0483 ( 18722 PWs)   bands (ev):

    -4.2528  -4.2528  -3.1858  -3.1858  -0.5038  -0.5038   0.7500   0.7500
     2.4547   2.4547   3.5757   3.5757   4.0412   4.0412   4.6809   4.6809

          k = 0.0161-0.0483-0.0483 ( 18728 PWs)   bands (ev):

    -3.7740  -3.7740  -3.7740  -3.7740   0.0300   0.0300   0.0300   0.0300
     2.9790   2.9790   2.9790   2.9790   4.6936   4.6936   4.6936   4.6936

          k = 0.0322 0.0322 0.0322 ( 18727 PWs)   bands (ev):

    -4.4836  -3.4019  -3.4019  -3.4019  -0.5509  -0.5509  -0.5509   0.6997
     3.2364   3.2364   3.2364   4.2291   4.2291   4.2291   4.9818   4.9818

          k = 0.0322 0.0322-0.0483 ( 18718 PWs)   bands (ev):

    -3.9966  -3.9966  -3.3249  -3.3249  -0.7915  -0.7915  -0.0470  -0.0470
     3.4091   3.4091   4.3551   4.3551   4.4081   4.4081   4.5877   4.5877

          k = 0.0322-0.0483-0.0483 ( 18720 PWs)   bands (ev):

    -3.6398  -3.6398  -3.6398  -3.6398  -0.6217  -0.6217  -0.6217  -0.6217
     4.1177   4.1177   4.1177   4.1177   4.7550   4.7550   4.7550   4.7550

          k =-0.0483-0.0483-0.0483 ( 18656 PWs)   bands (ev):

    -3.5617  -3.5617  -3.5617  -3.5617  -0.8905  -0.8905  -0.8905  -0.8905
     4.7874   4.7874   4.7874   4.7874   4.7874   4.7874   4.7874   4.7874

     highest occupied level (ev):     5.9555

!    total energy              =     -63.06668263 Ry
     estimated scf accuracy    <          4.9E-11 Ry

     The total energy is the sum of the following terms:
     one-electron contribution =      18.20593276 Ry
     hartree contribution      =       4.49507307 Ry
     xc contribution           =     -19.15447371 Ry
     ewald contribution        =     -66.61321475 Ry

     convergence has been achieved in   8 iterations

     Forces acting on atoms (cartesian axes, Ry/au):

     atom    1 type  1   force =    -0.00000013    0.00000013   -0.00000013
     atom    2 type  1   force =     0.00000000    0.00000000    0.00000000
     atom    3 type  1   force =    -0.00000013   -0.00000013    0.00000013
     atom    4 type  1   force =     0.00000000    0.00000000    0.00000000
     atom    5 type  1   force =     0.00000013    0.00000013    0.00000013
     atom    6 type  1   force =     0.00000000    0.00000000    0.00000000
     atom    7 type  1   force =     0.00000013   -0.00000013   -0.00000013
     atom    8 type  1   force =     0.00000000    0.00000000    0.00000000

     Total force =     0.000000     Total SCF correction =     0.000002
     SCF correction compared to forces is large: reduce conv_thr to get better values


     Computing stress (Cartesian axis) and pressure

          total   stress  (Ry/bohr**3)                   (kbar)     P=       -0.00
  -0.00000002   0.00000000   0.00000000           -0.00        0.00        0.00
   0.00000000  -0.00000002   0.00000000            0.00       -0.00        0.00
   0.00000000   0.00000000  -0.00000002            0.00        0.00       -0.00


     Writing output data file ./Si.save/
 
     init_run     :      3.37s CPU      3.53s WALL (       2 calls)
     electrons    :    192.80s CPU    198.92s WALL (       5 calls)
     update_pot   :      1.88s CPU      1.92s WALL (       3 calls)
     forces       :      2.39s CPU      2.41s WALL (       5 calls)
     stress       :      8.40s CPU      8.50s WALL (       5 calls)

     Called by init_run:
     wfcinit      :      2.36s CPU      2.48s WALL (       2 calls)
     potinit      :      0.51s CPU      0.53s WALL (       2 calls)
     hinit0       :      0.38s CPU      0.38s WALL (       2 calls)

     Called by electrons:
     c_bands      :    171.10s CPU    176.30s WALL (      38 calls)
     sum_band     :     19.66s CPU     20.31s WALL (      38 calls)
     v_of_rho     :      1.95s CPU      2.07s WALL (      39 calls)
     mix_rho      :      0.27s CPU      0.31s WALL (      38 calls)

     Called by c_bands:
     init_us_2    :      2.87s CPU      2.94s WALL (    1760 calls)
     cegterg      :    161.16s CPU    165.96s WALL (     780 calls)

     Called by *egterg:
     cdiaghg      :      1.31s CPU      1.36s WALL (    3492 calls)
     h_psi        :    148.20s CPU    152.89s WALL (    3692 calls)
     g_psi        :      0.64s CPU      0.65s WALL (    2872 calls)

     Called by h_psi:
     h_psi:calbec :      5.02s CPU      5.19s WALL (    3692 calls)
     vloc_psi     :    134.50s CPU    138.93s WALL (    3692 calls)
     add_vuspsi   :      8.00s CPU      8.04s WALL (    3692 calls)

     General routines
     calbec       :      5.92s CPU      6.10s WALL (    4192 calls)
     fft          :      0.87s CPU      0.96s WALL (     432 calls)
     ffts         :      0.07s CPU      0.08s WALL (      38 calls)
     fftw         :    137.42s CPU    142.08s WALL (  102126 calls)
 
     Parallel routines
 
     PWSCF        :   3m28.96s CPU   3m36.08s WALL

 
   This run was terminated on:  13: 9:40  23Jun2022            

=------------------------------------------------------------------------------=
   JOB DONE.
=------------------------------------------------------------------------------=
